 &FCI NORB=  24,NELEC=10,MS2=0,
  ORBSYM=1,1,1,1,1,1,1,1,1,1,1,1,1,1,1,1,1,1,1,1,1,1,1,1,
  ISYM=1,
 &END
 4.739839327814638    1    1    1    1
 -0.4310234976786503    1    1    2    1
 1.045279151388294    1    1    2    2
 0.8734284120304863    1    1    3    3
 0.1404596643653587    1    1    4    1
 -0.09077484157965644    1    1    4    2
 0.9826605768522932    1    1    4    4
 1.038680174215873    1    1    5    5
 -0.145421911225646    1    1    6    1
 0.2089484758589827    1    1    6    2
 9.038440288381292e-15    1    1    6    3
 0.1079363311360391    1    1    6    4
 0.4091306225364153    1    1    6    6
 5.609585311796501e-15    1    1    7    1
 -7.674508606009121e-15    1    1    7    2
 0.2438695368863852    1    1    7    3
 -4.44886935255326e-15    1    1    7    4
 0.3984995758879456    1    1    7    7
 7.846285496066161e-15    1    1    8    1
 -9.869813928936871e-15    1    1    8    2
 0.166831676283186    1    1    8    3
 -6.50429125583278e-15    1    1    8    4
 -1.17239964861357e-15    1    1    8    6
 0.1602502485239327    1    1    8    7
 0.559533834311327    1    1    8    8
 0.1309866443534804    1    1    9    1
 -0.1723423520636748    1    1    9    2
 -1.013185522398959e-14    1    1    9    3
 -0.1682793107824412    1    1    9    4
 -0.1715616935678982    1    1    9    6
 -1.98376597629751e-15    1    1    9    7
 0.5879125854404033    1    1    9    9
 -0.09289017070486955    1    1   10    1
 0.02830148534589156    1    1   10    2
 -1.728497716568264e-15    1    1   10    3
 -0.4027741447849926    1    1   10    4
 2.074236748573488e-15    1    1   10    5
 -0.08901884536586925    1    1   10    6
 1.997628725859027e-15    1    1   10    7
 4.209925679374222e-15    1    1   10    8
 0.1330596615006178    1    1   10    9
 0.8280585211570222    1    1   10   10
 2.536919105578928e-15    1    1   11    3
 -1.941530152820083e-15    1    1   11    4
 -0.511259452500231    1    1   11    5
 1.824301688124753e-15    1    1   11    7
 0.997136836721868    1    1   11   11
 3.471656934539441e-15    1    1   12    1
 -2.671783512043635e-15    1    1   12    2
 -0.3354744346677603    1    1   12    3
 6.775419929763504e-15    1    1   12    4
 -4.584280283967059e-15    1    1   12    5
 -6.75363963303658e-15    1    1   12    6
 -0.2198084664817073    1    1   12    7
 -0.1216915550982318    1    1   12    8
 6.871641800124719e-15    1    1   12    9
 -3.648090546171687e-15    1    1   12   10
 2.625518415880025e-15    1    1   12   11
 0.7760740741614757    1    1   12   12
 -0.1613575348979162    1    1   13    1
 0.1516942971263861    1    1   13    2
 -4.24766739805523e-15    1    1   13    3
 -0.09424202516460485    1    1   13    4
 0.06585566004940889    1    1   13    6
 -5.211405018723877e-15    1    1   13    7
 -2.995681191472418e-15    1    1   13    8
 -0.005708890502712756    1    1   13    9
 0.05767413824555633    1    1   13   10
 1.32696164940168e-15    1    1   13   12
 0.5735309932720443    1    1   13   13
 -1.118467837303918e-15    1    1   14   11
 0.5156358347012954    1    1   14   14
 -0.02179497308974661    1    1   15    5
 0.03238413333930117    1    1   15   11
 0.5130240117216766    1    1   15   15
 0.3119500096648888    1    1   16    1
 -0.288584361319443    1    1   16    2
 3.673459475959699e-15    1    1   16    3
 0.1431171789047055    1    1   16    4
 -0.1268715919201364    1    1   16    6
 6.900605241618388e-15    1    1   16    7
 6.601810523664485e-15    1    1   16    8
 0.02705970071199497    1    1   16    9
 -0.1123697388815709    1    1   16   10
 -0.1099371877149639    1    1   16   13
 0.7787900419163696    1    1   16   16
 0.006401315120052392    1    1   17    3
 -1.20317600876724e-15    1    1   17    4
 0.006595799770209344    1    1   17    7
 0.01151371060251067    1    1   17    8
 1.128727946275874e-15    1    1   17   10
 -0.01065071099246034    1    1   17   12
 0.4637878302377391    1    1   17   17
 -2.411094316773794e-14    1    1   18    1
 2.185648056557442e-14    1    1   18    2
 0.1914970941661078    1    1   18    3
 1.123686078659948e-14    1    1   18    4
 2.267997717029782e-14    1    1   18    6
 0.1427479629067707    1    1   18    7
 0.2386707963766073    1    1   18    8
 -3.993738836164442e-14    1    1   18    9
 -1.907240808497533e-14    1    1   18   10
 2.075245120490054e-15    1    1   18   11
 -0.280995537471587    1    1   18   12
 2.749892013184504e-15    1    1   18   13
 -7.342137758120009e-15    1    1   18   16
 0.01755161764574323    1    1   18   17
 0.8100749000206028    1    1   18   18
 -0.2107812727084066    1    1   19    1
 0.1894785369759733    1    1   19    2
 -1.88052822517776e-14    1    1   19    3
 0.1210634401675964    1    1   19    4
 0.1486706573006841    1    1   19    6
 -2.013022110271674e-14    1    1   19    7
 -3.497466715669432e-14    1    1   19    8
 -0.2723733785178251    1    1   19    9
 -0.1688053623551665    1    1   19   10
 3.050473441446518e-14    1    1   19   12
 0.05320376713576924    1    1   19   13
 -0.06974982180430826    1    1   19   16
 -2.525772431107413e-15    1    1   19   17
 1.603421176271707e-15    1    1   19   18
 0.8199333856324686    1    1   19   19
 0.004919090348919099    1    1   20    5
 -7.969421376970273e-05    1    1   20   11
 0.151503379219992    1    1   20   15
 0.8802533208732229    1    1   20   20
 -0.1487754167802261    1    1   21   14
 0.8853477554181333    1    1   21   21
 -0.009762959252653547    1    1   22    1
 0.008163536318636672    1    1   22    2
 -0.01672325364922376    1    1   22    4
 -0.0002617209347464411    1    1   22    6
 1.653631773245508e-15    1    1   22    8
 0.03473243452604055    1    1   22    9
 -0.0151711750985245    1    1   22   10
 -1.83900805594308e-15    1    1   22   12
 0.1543048695928164    1    1   22   13
 0.06346729828343571    1    1   22   16
 0.007156613014024701    1    1   22   19
 0.8727595353519593    1    1   22   22
 -0.04956997445262169    1    1   23    1
 0.0525040002361568    1    1   23    2
 3.802395936763517e-15    1    1   23    3
 0.09904891024541296    1    1   23    4
 0.04248070234893211    1    1   23    6
 -3.9725323838713e-15    1    1   23    8
 -0.05489939981210393    1    1   23    9
 -0.1877058129561645    1    1   23   10
 -6.330971274838708e-15    1    1   23   12
 0.0211145784521547    1    1   23   13
 -0.1005342486673921    1    1   23   16
 -1.245905093635465e-15    1    1   23   17
 -4.304528179817683e-15    1    1   23   18
 -0.04565847225935415    1    1   23   19
 0.008896088789673828    1    1   23   22
 0.8909616766437635    1    1   23   23
 0.1275320908489834    1    1   24    3
 -4.159514582725237e-15    1    1   24    4
 1.835753225323803e-15    1    1   24    6
 0.05417509742378825    1    1   24    7
 -0.004459707042005492    1    1   24    8
 6.197628718995389e-15    1    1   24   10
 1.938237950055276e-15    1    1   24   11
 -0.2291361793469914    1    1   24   12
 -3.38195195416577e-15    1    1   24   13
 6.461415380403248e-15    1    1   24   16
 -0.01774211883155967    1    1   24   17
 -0.03390191728887163    1    1   24   18
 6.206387189659588e-15    1    1   24   19
 2.59218583126834e-15    1    1   24   23
 0.9225526905354375    1    1   24   24
 -0.4310234976786511    2    1    1    1
 0.06373866385018168    2    1    2    1
 -0.01415858262160434    2    1    2    2
 -0.006356102874271758    2    1    3    3
 -0.0170711126438705    2    1    4    1
 0.007864110443501049    2    1    4    2
 -0.01259922445812738    2    1    4    4
 -0.01130471707589561    2    1    5    5
 0.0229076765693042    2    1    6    1
 -0.004546883628273586    2    1    6    2
 -0.0005690916253534431    2    1    6    4
 -0.001903948960621855    2    1    6    6
 -0.0041283492309407    2    1    7    3
 -0.002089822752453827    2    1    7    7
 -1.225302918641078e-15    2    1    8    1
 -0.004987027113715146    2    1    8    3
 -0.00240880114271409    2    1    8    7
 -0.001990469508032455    2    1    8    8
 -0.0214557654283497    2    1    9    1
 0.00390031553061343    2    1    9    2
 0.002965034543298739    2    1    9    4
 0.002345416486714496    2    1    9    6
 -0.002574946870236192    2    1    9    9
 0.00974721716553094    2    1   10    1
 -0.004197255826764702    2    1   10    2
 0.0124571969028801    2    1   10    4
 0.00115786980992823    2    1   10    6
 -0.004255064838699376    2    1   10    9
 -0.01302844008862607    2    1   10   10
 0.01422427234460018    2    1   11    5
 -0.01804506353357754    2    1   11   11
 0.008116605038788105    2    1   12    3
 0.004705235813119907    2    1   12    7
 0.004657863470493728    2    1   12    8
 -0.01056269489789047    2    1   12   12
 0.02326528338170091    2    1   13    1
 -0.006027238105151244    2    1   13    2
 0.002878520095176307    2    1   13    4
 -0.001689933199105903    2    1   13    6
 0.0008416668577444966    2    1   13    9
 -0.004178991760901332    2    1   13   10
 -0.002457860480501404    2    1   13   13
 0.0009665662868018544    2    1   14   14
 0.001853514245813792    2    1   15    5
 -0.0008751050813815349    2    1   15   11
 0.0004967331997027989    2    1   15   15
 -0.04504682872757294    2    1   16    1
 0.01104548444298599    2    1   16    2
 -0.007814381058982422    2    1   16    4
 0.002798083676131744    2    1   16    6
 -0.001700285724150209    2    1   16    9
 0.006898539376261292    2    1   16   10
 0.005213355013756871    2    1   16   13
 -0.009495836257769999    2    1   16   16
 -0.0001064855727454364    2    1   17    3
 -0.0002518813435629399    2    1   17    7
 -0.0006530785305992977    2    1   17    8
 -0.0001832785400068398    2    1   17   12
 0.0008089876436367303    2    1   17   17
 3.947350894147861e-15    2    1   18    1
 -0.009846343925300023    2    1   18    3
 -0.005495975126048061    2    1   18    7
 -0.005204900344557425    2    1   18    8
 0.01134560494273184    2    1   18   12
 -0.0005417769961318094    2    1   18   17
 -0.0106681827072723    2    1   18   18
 0.03472950192247033    2    1   19    1
 -0.007992612252183255    2    1   19    2
 -0.004619314425178498    2    1   19    4
 -0.004594139877004995    2    1   19    6
 0.005847059645980223    2    1   19    9
 0.00614885404278316    2    1   19   10
 -1.184614304473556e-15    2    1   19   12
 -0.001357217881149535    2    1   19   13
 0.00341931653774608    2    1   19   16
 -0.008930469390693533    2    1   19   19
 0.00323119943166611    2    1   20    5
 -0.002251025961779876    2    1   20   11
 -0.0008635562262418745    2    1   20   15
 -0.002036042224969477    2    1   20   20
 0.0005548492913412069    2    1   21   14
 -0.002214598588392545    2    1   21   21
 0.001197597169681347    2    1   22    1
 -0.0008501040782473275    2    1   22    2
 -0.002669488082441152    2    1   22    4
 -0.001009325757743341    2    1   22    6
 0.001513445534418177    2    1   22    9
 0.001561018307702622    2    1   22   10
 -0.0006810656643913807    2    1   22   13
 -0.0003944802136032691    2    1   22   16
 -0.001064103404672029    2    1   22   19
 -0.002031910850646563    2    1   22   22
 0.009887992084616591    2    1   23    1
 -0.002083483474746445    2    1   23    2
 -0.003568320459413844    2    1   23    4
 -0.001819449917942331    2    1   23    6
 0.002150294072063657    2    1   23    9
 0.004764536802538103    2    1   23   10
 0.0001911861960166443    2    1   23   13
 0.0002967324330504178    2    1   23   16
 -0.003316482599901227    2    1   23   19
 -0.0005525315627404619    2    1   23   22
 -0.004555056914366495    2    1   23   23
 -0.002346192897329542    2    1   24    3
 -0.001255256760440836    2    1   24    7
 -0.0007885942748334412    2    1   24    8
 0.004002254686354347    2    1   24   12
 0.0003610026868928343    2    1   24   17
 -0.003709857539215155    2    1   24   18
 -0.00456707877050427    2    1   24   24
 1.045279151388294    2    2    1    1
 -0.01415858262160429    2    2    2    1
 0.7533143834707965    2    2    2    2
 0.6787651554937679    2    2    3    3
 0.01462949299559713    2    2    4    1
 0.01751027826992718    2    2    4    2
 0.6796024635040812    2    2    4    4
 0.7137070917385038    2    2    5    5
 -0.001813083941436292    2    2    6    1
 0.1086018907874413    2    2    6    2
 4.497585327041713e-15    2    2    6    3
 0.05865760444152882    2    2    6    4
 0.3665425735296272    2    2    6    6
 -3.744286038200681e-15    2    2    7    2
 0.1245580020132116    2    2    7    3
 -2.294781318161654e-15    2    2    7    4
 0.3454088476128165    2    2    7    7
 -4.007652967742326e-15    2    2    8    2
 0.03314247521380515    2    2    8    3
 -2.628655895221696e-15    2    2    8    4
 0.1003186907347528    2    2    8    7
 0.511336082624792    2    2    8    8
 -0.0007275772763005948    2    2    9    1
 -0.07099126480669099    2    2    9    2
 -3.253950267073686e-15    2    2    9    3
 -0.0661210136011566    2    2    9    4
 -0.1125464481962895    2    2    9    6
 0.5229060945448519    2    2    9    9
 -0.01308629965707891    2    2   10    1
 -0.005746615544904659    2    2   10    2
 -0.1453265164618986    2    2   10    4
 -0.04852202708068408    2    2   10    6
 1.085496970199835e-15    2    2   10    8
 0.02767389396204659    2    2   10    9
 0.5699396948738665    2    2   10   10
 1.015586342092029e-15    2    2   11    3
 -0.1885015765994077    2    2   11    5
 0.6171170899478085    2    2   11   11
 -0.1379089245660705    2    2   12    3
 2.67042938157171e-15    2    2   12    4
 -1.650361363420291e-15    2    2   12    5
 -2.671080126229809e-15    2    2   12    6
 -0.1108343816603386    2    2   12    7
 -0.02782460482126659    2    2   12    8
 1.240102792422578e-15    2    2   12    9
 1.05902135851375e-15    2    2   12   11
 0.5423418573334104    2    2   12   12
 -0.006669980340537992    2    2   13    1
 0.04691757652326834    2    2   13    2
 -1.950551297770756e-15    2    2   13    3
 -0.05911415746059075    2    2   13    4
 0.03515226436753659    2    2   13    6
 -2.843820509624438e-15    2    2   13    7
 0.004444820891575493    2    2   13    9
 -0.01647706373903754    2    2   13   10
 0.5199661772008685    2    2   13   13
 0.5265547233633949    2    2   14   14
 0.01807455951197164    2    2   15    5
 0.0245091223496457    2    2   15   11
 0.511999479954503    2    2   15   15
 0.01167082093570867    2    2   16    1
 -0.1001000485034263    2    2   16    2
 1.417689786358458e-15    2    2   16    3
 0.02861571811561298    2    2   16    4
 -0.07238416154971611    2    2   16    6
 3.202095954502974e-15    2    2   16    7
 1.5935075330646e-15    2    2   16    8
 -0.007775666907113427    2    2   16    9
 -0.01326045034980254    2    2   16   10
 -0.0206882473123907    2    2   16   13
 0.5881491058494995    2    2   16   16
 0.0003626637777926496    2    2   17    3
 -0.001194697187205523    2    2   17    7
 -0.008038843181096569    2    2   17    8
 -0.0178211509351166    2    2   17   12
 0.4863865159544239    2    2   17   17
 4.6590715022958e-15    2    2   18    2
 0.005509339720048993    2    2   18    3
 1.154681575950574e-15    2    2   18    4
 8.188953118642192e-15    2    2   18    6
 0.03142787224125962    2    2   18    7
 0.1214980474967277    2    2   18    8
 -1.86526318929818e-14    2    2   18    9
 -5.619881504612201e-15    2    2   18   10
 -0.07326184264351324    2    2   18   12
 2.365879408074289e-15    2    2   18   13
 -2.530787486272259e-15    2    2   18   16
 0.003916049858051252    2    2   18   17
 0.6060696121117422    2    2   18   18
 -3.40782384221562e-06    2    2   19    1
 0.03607562869465592    2    2   19    2
 0.01119367431360172    2    2   19    4
 0.05189037992949978    2    2   19    6
 -5.704494139075834e-15    2    2   19    7
 -1.710129421454677e-14    2    2   19    8
 -0.134051549362596    2    2   19    9
 -0.04405709729175501    2    2   19   10
 8.203065329899476e-15    2    2   19   12
 0.03121323176667833    2    2   19   13
 -0.01674117770011553    2    2   19   16
 1.746042191072204e-15    2    2   19   18
 0.6268935016514799    2    2   19   19
 0.03770745090400251    2    2   20    5
 -0.01951330967100464    2    2   20   11
 0.08904191989347524    2    2   20   15
 0.7046800063338359    2    2   20   20
 -0.09067110887550085    2    2   21   14
 0.7053135641306828    2    2   21   21
 -0.0007856986244965818    2    2   22    1
 -0.003615893468398081    2    2   22    2
 -0.03804990493850812    2    2   22    4
 -0.01103625287116754    2    2   22    6
 1.893404208566022e-15    2    2   22    8
 0.04395672664664245    2    2   22    9
 0.002642544971327911    2    2   22   10
 -1.123213282620375e-15    2    2   22   12
 0.09430437296485457    2    2   22   13
 0.03592938124377461    2    2   22   16
 -0.003029482105176529    2    2   22   19
 0.7014273334196165    2    2   22   22
 0.003041756182154468    2    2   23    1
 0.0112522242189818    2    2   23    2
 2.027835792689816e-15    2    2   23    3
 0.01815153436927736    2    2   23    4
 0.00767064365703173    2    2   23    6
 -2.741836595862715e-15    2    2   23    8
 -0.03165345305929412    2    2   23    9
 -0.07486569548895049    2    2   23   10
 -4.055742189230668e-15    2    2   23   12
 0.02240260996357969    2    2   23   13
 -0.06264705558916867    2    2   23   16
 -6.245268864583192e-15    2    2   23   18
 -0.04979039318269688    2    2   23   19
 0.004243604555931604    2    2   23   22
 0.6888179977110926    2    2   23   23
 0.04891918539711263    2    2   24    3
 -1.005363934178699e-15    2    2   24    4
 1.277337619582578e-15    2    2   24    6
 0.02040078985623445    2    2   24    7
 0.0004456267623481283    2    2   24    8
 1.969157108143952e-15    2    2   24   10
 -0.1188316330063544    2    2   24   12
 -2.657955452153322e-15    2    2   24   13
 2.938191454007359e-15    2    2   24   16
 -0.008409186260809113    2    2   24   17
 -0.05363528391328266    2    2   24   18
 7.230938955958622e-15    2    2   24   19
 0.7008933477547026    2    2   24   24
 0.01919675983239017    3    1    3    1
 0.0231445982700988    3    1    3    2
 -0.003094303672359318    3    1    4    3
 0.00437472106563387    3    1    6    3
 0.01082509707702951    3    1    7    1
 0.009773022655955151    3    1    7    2
 -0.00387957254896081    3    1    7    4
 0.004848259070587547    3    1    7    6
 0.0103697493796764    3    1    8    1
 0.007335982030788889    3    1    8    2
 -0.008917393442964624    3    1    8    4
 0.001725694366545003    3    1    8    6
 0.0007851860418915791    3    1    9    3
 -0.001919564830662136    3    1    9    7
 -0.00444455424127374    3    1    9    8
 -0.001660361754430514    3    1   10    3
 0.0004295023636545606    3    1   10    7
 0.001933174474596755    3    1   10    8
 -0.023572991451181    3    1   12    1
 -0.01316559083359798    3    1   12    2
 0.001369876678707175    3    1   12    4
 -0.006634868327991395    3    1   12    6
 0.004965011373581902    3    1   12    9
 -0.002694247509509695    3    1   12   10
 0.009405667458148772    3    1   13    3
 0.004228043112183512    3    1   13    7
 0.005562287627325661    3    1   13    8
 -0.006449005368823189    3    1   13   12
 -0.00718828141759306    3    1   14    5
 0.000709777523603694    3    1   14   11
 -0.006320921947574032    3    1   15   14
 -0.01032826822875265    3    1   16    3
 -0.005568454588801689    3    1   16    7
 -0.003674432126344699    3    1   16    8
 0.0140650259056898    3    1   16   12
 0.0002367491250593719    3    1   17    1
 0.0001501488060063437    3    1   17    2
 -0.001237335595383798    3    1   17    4
 0.0002501217182661594    3    1   17    6
 -0.003196932594485211    3    1   17    9
 0.002966888982670393    3    1   17   10
 -0.005469299717792785    3    1   17   13
 -0.0008435514368908725    3    1   17   16
 0.02340218356195503    3    1   18    1
 0.005871980072773228    3    1   18    2
 -0.01036970111261942    3    1   18    4
 0.0009419017918060515    3    1   18    6
 -0.0002432861304321144    3    1   18    9
 0.006927314215478804    3    1   18   10
 0.004220634842968722    3    1   18   13
 -0.008895053754364432    3    1   18   16
 1.766627493811614e-15    3    1   18   18
 -2.344883939144969e-15    3    1   19    1
 -0.001463581386202246    3    1   19    3
 1.102528765108059e-15    3    1   19    4
 -0.0001136434228662332    3    1   19    7
 0.001066550141237313    3    1   19    8
 -0.002879400969150463    3    1   19   12
 0.001250962615806487    3    1   19   17
 0.0076833016606494    3    1   19   18
 -1.526066604742517e-15    3    1   19   19
 0.0008046001270985193    3    1   20   14
 0.01725854626828747    3    1   21    5
 -0.01196200798598276    3    1   21   11
 -0.001684459757368552    3    1   21   15
 -0.0008716509767289506    3    1   21   20
 0.01055566077536961    3    1   22    3
 0.005784277608643518    3    1   22    7
 0.005215019146361622    3    1   22    8
 -0.007672343947918994    3    1   22   12
 0.0004354148713054269    3    1   22   17
 0.004742651242521018    3    1   22   18
 0.01211946956364423    3    1   23    3
 0.007114670833476487    3    1   23    7
 0.008720318051761379    3    1   23    8
 -0.008740168947108034    3    1   23   12
 0.0003712508437260266    3    1   23   17
 0.008339770008242001    3    1   23   18
 0.01280953576572523    3    1   24    1
 0.00572593911624913    3    1   24    2
 0.01288176222269324    3    1   24    4
 0.005768925528948269    3    1   24    6
 -0.009286735262813395    3    1   24    9
 -0.009475402171507139    3    1   24   10
 0.002173321069847543    3    1   24   13
 -0.003184288150698964    3    1   24   16
 0.008581241412770568    3    1   24   19
 0.001922618309055641    3    1   24   22
 0.003783436082663315    3    1   24   23
 0.02314459827009879    3    2    3    1
 0.1538354385814906    3    2    3    2
 0.01771416984894301    3    2    4    3
 1.397070597139771e-15    3    2    6    2
 -0.0005258805690716295    3    2    6    3
 -1.140304075917561e-15    3    2    6    4
 2.608212404393968e-15    3    2    6    6
 0.01270455902655464    3    2    7    1
 0.0397970094561227    3    2    7    2
 -0.02434255033006774    3    2    7    4
 0.05057851164834311    3    2    7    6
 -3.067650222846537e-15    3    2    7    7
 0.01186801455103305    3    2    8    1
 0.0036939798836232    3    2    8    2
 -0.07688718596871746    3    2    8    4
 0.01007523102577588    3    2    8    6
 -1.681713246986735e-15    3    2    8    7
 -4.90062453774829e-15    3    2    8    8
 0.05971663551033297    3    2    9    3
 2.277147835714707e-15    3    2    9    4
 -1.798299458363628e-15    3    2    9    6
 -0.0165977100903302    3    2    9    7
 -0.082050281907321    3    2    9    8
 5.935401135907988e-15    3    2    9    9
 -0.03544808774490575    3    2   10    3
 -0.005847486053216585    3    2   10    7
 -0.0009596964452405544    3    2   10    8
 -0.02555197215532206    3    2   12    1
 -0.03691227421856912    3    2   12    2
 -1.78930978124476e-15    3    2   12    3
 -0.01220523184433142    3    2   12    4
 -0.04273947227322402    3    2   12    6
 1.31963487445253e-15    3    2   12    7
 2.902801803858933e-15    3    2   12    8
 0.04219923640203755    3    2   12    9
 -0.02075335576506088    3    2   12   10
 0.04469782492382585    3    2   13    3
 0.01484831163242663    3    2   13    7
 0.04661199832863461    3    2   13    8
 -1.083535900945481e-15    3    2   13    9
 -0.01116544156827475    3    2   13   12
 -0.06564562323071331    3    2   14    5
 -0.02491350704730097    3    2   14   11
 -0.1084044666115649    3    2   15   14
 -0.02716601004153603    3    2   16    3
 -0.010581531596107    3    2   16    7
 0.01563160819983261    3    2   16    8
 1.09005475011891e-15    3    2   16    9
 0.07622173727238754    3    2   16   12
 1.045370420622665e-15    3    2   16   13
 -2.28493063212622e-15    3    2   16   16
 0.0004390930728450675    3    2   17    1
 -0.003364262906767633    3    2   17    2
 -0.002547861192820214    3    2   17    4
 0.004019538728640414    3    2   17    6
 -0.05130078235228236    3    2   17    9
 0.04686366125775851    3    2   17   10
 1.788129774554555e-15    3    2   17   12
 -0.09063981589694896    3    2   17   13
 -0.01229853171430235    3    2   17   16
 0.02282425770564649    3    2   18    1
 -0.02106001765286344    3    2   18    2
 -5.228914947590506e-15    3    2   18    3
 -0.05456714425439441    3    2   18    4
 -0.01439555997783211    3    2   18    6
 -2.206411966640596e-15    3    2   18    7
 0.009895839860015979    3    2   18    9
 0.04063875545484034    3    2   18   10
 0.002552624168323569    3    2   18   13
 -0.02563323017828675    3    2   18   16
 2.170108626382239e-14    3    2   18   18
 -2.248160036721921e-15    3    2   19    1
 2.517332829468017e-15    3    2   19    2
 -0.04871435465883961    3    2   19    3
 5.907191221279668e-15    3    2   19    4
 1.084176922979978e-15    3    2   19    6
 -0.02394053853296642    3    2   19    7
 0.002441099507093595    3    2   19    8
 -4.011121577084705e-15    3    2   19   10
 0.006598814442127154    3    2   19   12
 3.647984779358044e-15    3    2   19   16
 0.01121570043075285    3    2   19   17
 0.1024678568124693    3    2   19   18
 -2.099503119265641e-14    3    2   19   19
 0.0241856081194093    3    2   20   14
 0.08688415227370593    3    2   21    5
 -0.04712280088174554    3    2   21   11
 -0.02768267197101117    3    2   21   15
 0.01063934526757475    3    2   21   20
 0.05287481575714007    3    2   22    3
 0.03112280782687872    3    2   22    7
 0.0183386305877799    3    2   22    8
 -0.03585079206401673    3    2   22   12
 0.02433455982945555    3    2   22   17
 0.009709837258290045    3    2   22   18
 0.03991131752794998    3    2   23    3
 1.881550732271712e-15    3    2   23    4
 2.205874752685653e-15    3    2   23    6
 0.03302631626884372    3    2   23    7
 0.0648337340396402    3    2   23    8
 -3.942626586400215e-15    3    2   23    9
 -1.416499767966599e-15    3    2   23   10
 -0.02139538850168635    3    2   23   12
 0.01089832298835055    3    2   23   17
 0.05303459910567124    3    2   23   18
 -4.249944787150451e-15    3    2   23   19
 0.01390346723998525    3    2   24    1
 0.01380472827384352    3    2   24    2
 0.05444033053843508    3    2   24    4
 0.0245040665149456    3    2   24    6
 -1.775938256295806e-15    3    2   24    7
 -3.667867643542383e-15    3    2   24    8
 -0.05893390737177395    3    2   24    9
 -0.03200057596237951    3    2   24   10
 0.01143989758004377    3    2   24   13
 -0.009324424743841079    3    2   24   16
 3.889969436405092e-15    3    2   24   18
 0.05096635055151535    3    2   24   19
 -0.004258527732001778    3    2   24   22
 0.02046491943258227    3    2   24   23
 -1.295063488846856e-15    3    2   24   24
 0.8734284120304864    3    3    1    1
 -0.006356102874271742    3    3    2    1
 0.6787651554937679    3    3    2    2
 0.6633358785842516    3    3    3    3
 0.00716319679337579    3    3    4    1
 0.01484036824884355    3    3    4    2
 0.6050632336185753    3    3    4    4
 0.621693734138214    3    3    5    5
 -0.0005213888266731202    3    3    6    1
 0.07857735507907344    3    3    6    2
 3.658810536889254e-15    3    3    6    3
 0.03771314352252313    3    3    6    4
 0.3564684981664249    3    3    6    6
 -2.691058047034648e-15    3    3    7    2
 0.1063486952672429    3    3    7    3
 -1.602580805007455e-15    3    3    7    4
 0.3478781802173467    3    3    7    7
 -2.628181633724491e-15    3    3    8    2
 0.01262335330664497    3    3    8    3
 -2.087517065221543e-15    3    3    8    4
 0.09596740436073629    3    3    8    7
 0.5189522615204992    3    3    8    8
 -0.0001238845563261151    3    3    9    1
 -0.02322195968319641    3    3    9    2
 -1.38137653168054e-15    3    3    9    3
 -0.03008187251949201    3    3    9    4
 -0.1022828528971598    3    3    9    6
 -1.0627550268829e-15    3    3    9    7
 0.5229252308183342    3    3    9    9
 -0.006671016132293404    3    3   10    1
 -0.01435990107117379    3    3   10    2
 -0.1174182350356044    3    3   10    4
 -0.03662661102990785    3    3   10    6
 0.006044281001662984    3    3   10    9
 0.5229681572104541    3    3   10   10
 -0.1419959191658207    3    3   11    5
 0.5480414825995878    3    3   11   11
 -1.520228700949696e-15    3    3   12    2
 -0.1099830712961189    3    3   12    3
 1.781766391415659e-15    3    3   12    4
 -1.21280318450972e-15    3    3   12    5
 -2.603121623749071e-15    3    3   12    6
 -0.1026036696971621    3    3   12    7
 -0.02736007180140415    3    3   12    8
 0.5249344910782089    3    3   12   12
 -0.002289882748009712    3    3   13    1
 0.05210876063534289    3    3   13    2
 -1.40530444291953e-15    3    3   13    3
 -0.05306939805163022    3    3   13    4
 0.02734732859442437    3    3   13    6
 -2.226048807869162e-15    3    3   13    7
 0.01066602140663306    3    3   13    9
 -0.02935332779876246    3    3   13   10
 0.5052107996562729    3    3   13   13
 0.5293654560889689    3    3   14   14
 0.02605294605469191    3    3   15    5
 0.03127727958900203    3    3   15   11
 0.5046638819683785    3    3   15   15
 0.004978266084976638    3    3   16    1
 -0.08350818911792242    3    3   16    2
 1.097397058948388e-15    3    3   16    3
 0.02166639591528338    3    3   16    4
 -0.06143455568694593    3    3   16    6
 2.211959617077946e-15    3    3   16    7
 1.376122759793445e-15    3    3   16    8
 -0.009795969699749775    3    3   16    9
 -0.01763648927725821    3    3   16   10
 -0.007010077842755666    3    3   16   13
 0.539709513342981    3    3   16   16
 -0.02315946255267076    3    3   17    3
 0.0007959880522188322    3    3   17    7
 -0.0005905475934229609    3    3   17    8