 &FCI NORB=  18,NELEC=14,MS2=0,
  ORBSYM=1,1,1,1,1,1,1,1,1,1,1,1,1,1,1,1,1,1,
  ISYM=1,
 &END
 2.310298586953066    1    1    1    1
 -1.514877585108534e-11    1    1    2    1
 2.311507608559298    1    1    2    2
 -0.1999736275133646    1    1    3    1
 9.40231411929362e-13    1    1    3    2
 0.8623623802315499    1    1    3    3
 -2.244279832344874e-12    1    1    4    1
 0.1844373045033512    1    1    4    2
 1.303442954916647e-12    1    1    4    3
 0.6674703633844219    1    1    4    4
 0.6905406012281311    1    1    5    5
 -1.124119502928282e-15    1    1    6    3
 0.6905406012281311    1    1    6    6
 0.07406881388863906    1    1    7    1
 -1.537267523103255e-13    1    1    7    2
 0.1014473184050217    1    1    7    3
 -2.098471372606609e-12    1    1    7    4
 0.6926804810743039    1    1    7    7
 -1.754031689039582e-12    1    1    8    5
 9.604195796212428e-13    1    1    8    6
 0.619350276992288    1    1    8    8
 -9.601220853259853e-13    1    1    9    5
 -1.754387232622494e-12    1    1    9    6
 0.6193502769922878    1    1    9    9
 -1.390347625806823e-12    1    1   10    1
 0.1103377318593238    1    1   10    2
 1.003584104774943e-12    1    1   10    3
 0.1345777543017959    1    1   10    4
 -2.218049698062296e-14    1    1   10    7
 0.4105625000972536    1    1   10   10
 0.02011943389736914    1    1   11    1
 -1.880677251701281e-13    1    1   11    2
 -0.1079918955894801    1    1   11    3
 1.244760104194453e-13    1    1   11    4
 1.186891885089731e-15    1    1   11    6
 -0.1420834745806247    1    1   11    7
 3.566445014913711e-13    1    1   11   10
 0.4669214374684104    1    1   11   11
 0.2220831452106731    1    1   12    5
 -0.08628020886529275    1    1   12    6
 -1.292207916652049e-12    1    1   12    8
 -1.697242065493324e-13    1    1   12    9
 0.589230267207515    1    1   12   12
 0.08628020886529268    1    1   13    5
 0.2220831452106731    1    1   13    6
 2.326113864775347e-15    1    1   13    7
 1.690376788273266e-13    1    1   13    8
 -1.293070382076672e-12    1    1   13    9
 0.5892302672075149    1    1   13   13
 -0.1592019966429569    1    1   14    1
 6.107621379812894e-13    1    1   14    2
 0.1210570580605805    1    1   14    3
 1.549879205889299e-12    1    1   14    4
 2.056849474443748e-15    1    1   14    6
 -0.1749181712958177    1    1   14    7
 8.447869966750452e-13    1    1   14   10
 -0.009654157972390566    1    1   14   11
 0.5681918233570955    1    1   14   14
 9.977038360144629e-13    1    1   15    5
 1.372896538884642e-12    1    1   15    6
 -0.03454913389263228    1    1   15    8
 -0.2688799077490453    1    1   15    9
 5.229416584683466e-13    1    1   15   12
 1.981495701866633e-12    1    1   15   13
 0.6425211380878456    1    1   15   15
 1.373086605563425e-12    1    1   16    5
 -9.986385265192281e-13    1    1   16    6
 -0.2688799077490452    1    1   16    8
 0.03454913389263212    1    1   16    9
 1.98131773778342e-12    1    1   16   12
 -5.230218510551527e-13    1    1   16   13
 0.6425211380878454    1    1   16   16
 -2.79457944217015e-13    1    1   17    1
 0.03574657485956581    1    1   17    2
 -8.968342397268232e-13    1    1   17    3
 0.147622958841456    1    1   17    4
 -1.993495835640694e-12    1    1   17    7
 -0.04365225128343584    1    1   17   10
 9.659504724914983e-13    1    1   17   11
 1.579393214869915e-12    1    1   17   14
 0.7344740671849256    1    1   17   17
 -2.266696497321261e-12    1    1   18    1
 0.1725851494520169    1    1   18    2
 2.062138067300219e-12    1    1   18    3
 0.1044131216656633    1    1   18    4
 8.908494048993661e-13    1    1   18    7
 0.1757890088095911    1    1   18   10
 -9.333533728284491e-13    1    1   18   11
 6.537780421228525e-13    1    1   18   14
 -0.2269367548696724    1    1   18   17
 0.7658784343646164    1    1   18   18
 -1.514861023166859e-11    2    1    1    1
 1.811214220436024    2    1    2    1
 1.513604879997644e-11    2    1    2    2
 8.893241057024369e-13    2    1    3    1
 -0.2123286461745243    2    1    3    2
 -1.423420134076426e-15    2    1    3    3
 0.1761613302362855    2    1    4    1
 7.354325463081778e-13    2    1    4    2
 -0.1566548202369978    2    1    4    3
 -2.108761294853658e-14    2    1    4    4
 -1.808371369909907e-15    2    1    5    5
 -2.811305648495621e-15    2    1    6    4
 -2.458861525560985e-15    2    1    6    6
 -2.282980631268268e-13    2    1    7    1
 0.05613089260688194    2    1    7    2
 -7.016770170723136e-15    2    1    7    3
 0.2505719913028865    2    1    7    4
 1.677224243811272e-14    2    1    7    7
 0.2097725399349424    2    1    8    5
 -0.1148332066276739    2    1    8    6
 -1.025135743947218e-15    2    1    8    7
 0.1148332066276739    2    1    9    5
 0.2097725399349423    2    1    9    6
 2.533478110712517e-15    2    1    9    7
 1.065924803874635e-15    2    1    9    9
 0.1111996078937076    2    1   10    1
 4.651802207916065e-13    2    1   10    2
 -0.1209864437247327    2    1   10    3
 0.002715701078093562    2    1   10    7
 -3.515175222581418e-15    2    1   10   10
 -1.425346994622901e-13    2    1   11    1
 0.03101748284651386    2    1   11    2
 8.772214271015902e-15    2    1   11    3
 -0.01523768508259306    2    1   11    4
 -2.506547674618775e-15    2    1   11    7
 -0.04222968430260208    2    1   11   10
 5.668093540474575e-15    2    1   11   11
 -3.502101883123935e-15    2    1   12    5
 0.1541247071263102    2    1   12    8
 0.02019711645362767    2    1   12    9
 -7.733685506000137e-15    2    1   12   12
 -2.04860109449346e-15    2    1   13    5
 -4.239281315872491e-15    2    1   13    6
 -0.02019711645362765    2    1   13    8
 0.1541247071263102    2    1   13    9
 -9.480665152251219e-15    2    1   13   13
 6.423672258383117e-13    2    1   14    1
 -0.151643284210924    2    1   14    2
 -1.042455891529371e-14    2    1   14    3
 -0.1829323486494636    2    1   14    4
 -3.827222275391587e-15    2    1   14    7
 -0.1007387707184946    2    1   14   10
 5.678389667516789e-15    2    1   14   11
 -2.58593441567283e-14    2    1   14   14
 -0.1196436999918406    2    1   15    5
 -0.1645603196227015    2    1   15    6
 -2.02865243872202e-15    2    1   15    7
 -3.757515155608666e-15    2    1   15    9
 -0.06256101448416967    2    1   15   12
 -0.2369898991993112    2    1   15   13
 1.028647516555375e-14    2    1   15   15
 -0.1645603196227015    2    1   16    5
 0.1196436999918405    2    1   16    6
 1.090074296978139e-15    2    1   16    7
 -2.669020644172184e-15    2    1   16    8
 -0.2369898991993112    2    1   16   12
 0.06256101448416969    2    1   16   13
 7.652490488287159e-15    2    1   16   16
 0.01586956998578764    2    1   17    1
 6.811622405987266e-14    2    1   17    2
 0.1069964989514891    2    1   17    3
 -4.244829961163317e-15    2    1   17    4
 -2.670745981123895e-15    2    1   17    6
 0.2399418988081417    2    1   17    7
 3.151931140126694e-15    2    1   17   10
 -0.115441157133918    2    1   17   11
 -0.1897994295924068    2    1   17   14
 1.706967900361178e-14    2    1   17   17
 0.1857306196766305    2    1   18    1
 7.832907632272417e-13    2    1   18    2
 -0.2471967921353947    2    1   18    3
 1.581184976456447e-14    2    1   18    4
 1.135113250664679e-15    2    1   18    6
 -0.104657232406105    2    1   18    7
 1.578792173129475e-14    2    1   18   10
 0.1103939379730894    2    1   18   11
 -0.07754376938251775    2    1   18   14
 9.214851104388799e-15    2    1   18   17
 7.105427357601002e-15    2    1   18   18
 2.311507608559297    2    2    1    1
 1.5136345011239e-11    2    2    2    1
 2.312718124707647    2    2    2    2
 -0.2001981189869084    2    2    3    1
 -2.611111068491113e-12    2    2    3    2
 0.8622263333468344    2    2    3    3
 7.00530183764539e-13    2    2    4    1
 0.1845910627513112    2    2    4    2
 -1.315824899928519e-12    2    2    4    3
 0.6675654946234491    2    2    4    4
 0.6905403233528421    2    2    5    5
 -1.12061554753957e-15    2    2    6    3
 0.690540323352842    2    2    6    6
 0.07408754216152619    2    2    7    1
 7.848263890698459e-13    2    2    7    2
 0.1013405673507256    2    2    7    3
 2.091467117082458e-12    2    2    7    4
 0.6927199175057486    2    2    7    7
 1.753634666733579e-12    2    2    8    5
 -9.597887730931762e-13    2    2    8    6
 0.6193859046894979    2    2    8    8
 9.600094084540635e-13    2    2    9    5
 1.753207198551408e-12    2    2    9    6
 0.6193859046894977    2    2    9    9
 4.688015440665023e-13    2    2   10    1
 0.1104485868325226    2    2   10    2
 -1.018917086756494e-12    2    2   10    3
 0.1345983040086748    2    2   10    4
 2.320957542330618e-14    2    2   10    7
 0.4105801071459829    2    2   10   10
 0.02017181527478348    2    2   11    1
 3.3100690227526e-13    2    2   11    2
 -0.1079452956173083    2    2   11    3
 -1.304012970616454e-13    2    2   11    4
 1.186837348884918e-15    2    2   11    6
 -0.1420617729811017    2    2   11    7
 -3.497551356273709e-13    2    2   11   10
 0.4668960756795306    2    2   11   11
 0.2221122824027366    2    2   12    5
 -0.08629152878340093    2    2   12    6
 1.284837128386975e-12    2    2   12    8
 1.679798426149614e-13    2    2   12    9
 0.5892626051480998    2    2   12   12
 0.08629152878340086    2    2   13    5
 0.2221122824027367    2    2   13    6
 2.326236911995678e-15    2    2   13    7
 -1.686709857766094e-13    2    2   13    8
 1.284018599489012e-12    2    2   13    9
 0.5892626051480998    2    2   13   13
 -0.1593301053333388    2    2   14    1
 -1.925378888431459e-12    2    2   14    2
 0.121077671376945    2    2   14    3
 -1.508867723355159e-12    2    2   14    4
 2.058530678647166e-15    2    2   14    6
 -0.1749979557826774    2    2   14    7
 -8.387848152207196e-13    2    2   14   10
 -0.00961598871673394    2    2   14   11
 0.5682582759199007    2    2   14   14
 -1.002801140945085e-12    2    2   15    5
 -1.378613004312436e-12    2    2   15    6
 -0.0345543073184616    2    2   15    8
 -0.2689201701262168    2    2   15    9
 -5.231455578966649e-13    2    2   15   12
 -1.981193633310847e-12    2    2   15   13
 0.6425776500436343    2    2   15   15
 -1.378421080140629e-12    2    2   16    5
 1.001851816350499e-12    2    2   16    6
 -0.2689201701262167    2    2   16    8
 0.03455430731846144    2    2   16    9
 -1.981174401458656e-12    2    2   16   12
 5.230589542689132e-13    2    2   16   13
 0.6425776500436339    2    2   16   16
 -1.410036439440507e-14    2    2   17    1
 0.03571461292250919    2    2   17    2
 8.920980176288256e-13    2    2   17    3
 0.1477022600495226    2    2   17    4
 2.01883893810459e-12    2    2   17    7
 -0.04361985455295621    2    2   17   10
 -9.643736740162677e-13    2    2   17   11
 -1.594711474316739e-12    2    2   17   14
 0.7345380404318653    2    2   17   17
 8.380163115843646e-13    2    2   18    1
 0.1727956582257828    2    2   18    2
 -2.072009040742063e-12    2    2   18    3
 0.1044221091849187    2    2   18    4
 -8.591146471490686e-13    2    2   18    7
 0.1757849146898974    2    2   18   10
 9.12857549286789e-13    2    2   18   11
 -6.444455209116912e-13    2    2   18   14
 -0.2269109361971658    2    2   18   17
 0.7658470856123121    2    2   18   18
 -0.1999736275133647    3    1    1    1
 8.893800019694019e-13    3    1    2    1
 -0.2001981189869085    3    1    2    2
 0.03792172326560837    3    1    3    1
 1.89134534582312e-15    3    1    3    2
 0.007836184810095103    3    1    3    3
 2.112325225240337e-13    3    1    4    1
 -0.02508783815305323    3    1    4    2
 -3.655733077684583e-14    3    1    4    3
 -0.01363279123528427    3    1    4    4
 -0.0007146820421758004    3    1    5    5
 -0.0007146820421758005    3    1    6    6
 -0.00188098366616773    3    1    7    1
 2.677630057113475e-15    3    1    7    2
 0.00891333532193196    3    1    7    3
 7.100763868177411e-14    3    1    7    4
 -0.009377079877176533    3    1    7    7
 3.556863307792997e-14    3    1    8    5
 -1.947143440715323e-14    3    1    8    6
 -0.004165668159083339    3    1    8    8
 1.947556049828311e-14    3    1    9    5
 3.557778859685607e-14    3    1    9    6
 -0.00416566815908334    3    1    9    9
 1.566240432065233e-13    3    1   10    1
 -0.01881961146644974    3    1   10    2
 -1.986221951011328e-14    3    1   10    3
 -0.003091950314928683    3    1   10    4
 8.245944763252848e-15    3    1   10    7
 -0.002717952601953792    3    1   10   10
 -0.009833908825347354    3    1   11    1
 -0.002225290023660587    3    1   11    3
 -6.609304153307697e-15    3    1   11    4
 9.448339424886692e-05    3    1   11    7
 -1.111718493652296e-14    3    1   11   10
 0.0007029550311907803    3    1   11   11
 -0.004116630645589001    3    1   12    5
 0.001599327817452104    3    1   12    6
 3.113958024323787e-14    3    1   12    8
 4.088982150236621e-15    3    1   12    9
 -0.004709682694992993    3    1   12   12
 -0.001599327817452103    3    1   13    5
 -0.004116630645589001    3    1   13    6
 -4.07486960174218e-15    3    1   13    8
 3.115593935549996e-14    3    1   13    9
 -0.004709682694992992    3    1   13   13
 0.02045767997834842    3    1   14    1
 -3.316650143224295e-15    3    1   14    2
 -0.003887112687609453    3    1   14    3
 -5.878835169524222e-14    3    1   14    4
 0.0111995970338239    3    1   14    7
 -2.712416005279806e-14    3    1   14   10
 -0.004758381241449492    3    1   14   11
 -0.01019360481854732    3    1   14   14
 -2.178927870427418e-14    3    1   15    5
 -2.998125095703909e-14    3    1   15    6
 0.000663405927394239    3    1   15    8
 0.005162981078260035    3    1   15    9
 -1.2597156351845e-14    3    1   15   12
 -4.771703165303655e-14    3    1   15   13
 -0.007422548925432895    3    1   15   15
 -2.998332290184664e-14    3    1   16    5
 2.180560537161112e-14    3    1   16    6
 0.005162981078260032    3    1   16    8
 -0.0006634059273942363    3    1   16    9
 -4.770869661100416e-14    3    1   16   12
 1.259272721550743e-14    3    1   16   13
 -0.007422548925432886    3    1   16   16
 -6.432027578887001e-14    3    1   17    1
 0.008135269797978885    3    1   17    2
 -0.01178581378507881    3    1   17    4
 6.192792716703208e-14    3    1   17    7
 -0.003656969131606332    3    1   17   10
 -2.526853152476327e-14    3    1   17   11
 -5.94240743780542e-14    3    1   17   14
 -0.01308130449940467    3    1   17   17
 3.079233252624062e-13    3    1   18    1
 -0.03724490100804856    3    1   18    2
 -2.961673226522012e-14    3    1   18    3
 -0.001492958661795854    3    1   18    4
 -8.325639932614351e-15    3    1   18    7
 -0.0007532813972837948    3    1   18   10
 1.442023473738838e-14    3    1   18   11
 -1.262227650058391e-14    3    1   18   14
 0.0004908890543194925    3    1   18   17
 -0.0008370291416193818    3    1   18   18
 9.40153129620515e-13    3    2    1    1
 -0.2123286461745243    3    2    2    1
 -2.611108253061347e-12    3    2    2    2
 1.893687691694645e-15    3    2    3    1
 0.03740393742034577    3    2    3    2
 3.297809318913891e-14    3    2    3    3
 -0.02549306290102367    3    2    4    1
 -2.115903736166736e-13    3    2    4    2
 0.008634088620205566    3    2    4    3
 -5.535730792807184e-14    3    2    4    4
 -2.716668078021145e-15    3    2    5    5
 -2.688087431491692e-15    3    2    6    6
 2.634522418439431e-15    3    2    7    1
 -0.002765683365228907    3    2    7    2
 3.755507820520134e-14    3    2    7    3
 -0.01697520409292922    3    2    7    4
 -4.019889309846985e-14    3    2    7    7
 -0.008486415518096381    3    2    8    5
 0.004645614278303978    3    2    8    6
 -1.724826115576607e-14    3    2    8    8
 -0.004645614278303981    3    2    9    5
 -0.008486415518096379    3    2    9    6
 -1.727413996966811e-14    3    2    9    9
 -0.01879088921007113    3    2   10    1
 -1.577558724089183e-13    3    2   10    2
 0.004704061952873103    3    2   10    3
 -1.283570334518551e-14    3    2   10    4
 -0.002067886151595872    3    2   10    7
 -1.112794215216428e-14    3    2   10   10
 -0.009299429242214254    3    2   11    2
 -9.730855341924976e-15    3    2   11    3
 0.001650314646875203    3    2   11    4
 0.002764981383194395    3    2   11   10
 2.759287014605266e-15    3    2   11   11
 -1.700893062116063e-14    3    2   12    5
 6.627692950964575e-15    3    2   12    6
 -0.007423876386457941    3    2   12    8
 -0.000972854376889399    3    2   12    9
 -1.916858861657739e-14    3    2   12   12
 -6.576050536797742e-15    3    2   13    5
 -1.697375335616516e-14    3    2   13    6
 0.0009728543768893984    3    2   13    8
 -0.007423876386457942    3    2   13    9
 -1.9082615001983e-14    3    2   13   13
 -3.237158557642799e-15    3    2   14    1
 0.0208628415025076    3    2   14    2
 -1.585629724608633e-14    3    2   14    3
 0.01381234707248965    3    2   14    4
 4.679222619395517e-14    3    2   14    7
 0.006390722821969509    3    2   14   10
 -2.023004172653349e-14    3    2   14   11
 -4.083526114416247e-14    3    2   14   14
 0.005216220114542724    3    2   15    5
 0.007174492675586388    3    2   15    6
 2.793117750065482e-15    3    2   15    8
 2.167827270217144e-14    3    2   15    9
 0.003006157272163269    3    2   15   12
 0.01138774546387065    3    2   15   13
 -3.140410286937049e-14    3    2   15   15
 0.00717449267558639    3    2   16    5
 -0.005216220114542725    3    2   16    6
 2.162998597405199e-14    3    2   16    8
 -2.774387978604761e-15    3    2   16    9
 0.01138774546387066    3    2   16   12
 -0.003006157272163272    3    2   16   13
 -3.128470664504945e-14    3    2   16   16
 0.007168804444243116    3    2   17    1
 6.369140204203433e-14    3    2   17    2
 -0.000132549005433478    3    2   17    3
 -4.904305388167838e-14    3    2   17    4
 -0.01499624736533484    3    2   17    7
 -1.5541057165887e-14    3    2   17   10
 0.006133043368228302    3    2   17   11
 0.01417170354737576    3    2   17   14
 -5.574013473008677e-14    3    2   17   17
 -0.03660825231206688    3    2   18    1
 -3.0949951071113e-13    3    2   18    2
 0.007124865488221311    3    2   18    3
 -7.105562812474573e-15    3    2   18    4
 0.001850241689678921    3    2   18    7
 -3.639116766976865e-15    3    2   18   10
 -0.003354043950044712    3    2   18   11
 0.003159393904207042    3    2   18   14
 1.307981500886513e-15    3    2   18   17
 -3.747002708109903e-15    3    2   18   18
 0.86236238023155    3    3    1    1
 -1.408357542216685e-15    3    3    2    1
 0.8622263333468345    3    3    2    2
 0.007836184810095072    3    3    3    1
 3.298280943712544e-14    3    3    3    2
 0.8457375812895986    3    3    3    3
 -9.563739231414545e-14    3    3    4    1
 0.02264105237486322    3    3    4    2
 -7.218447986113355e-15    3    3    4    3
 0.5262171558945641    3    3    4    4
 0.6307157883348723    3    3    5    5
 -1.52819021969282e-15    3    3    6    3
 0.6307157883348723    3    3    6    6
 0.03272361206031005    3    3    7    1
 1.368202414183049e-13    3    3    7    2
 0.1378359090230502    3    3    7    3
 -3.541791261486878e-15    3    3    7    4
 0.5645315953073865    3    3    7    7
 0.5367458447657435    3    3    8    8
 0.5367458447657433    3    3    9    9
 -1.580695761237743e-14    3    3   10    1
 0.003292636281276183    3    3   10    2
 -5.506420905261587e-15    3    3   10    3
 0.09941697352903714    3    3   10    4
 -1.895329971406055e-15    3    3   10    7
 0.371895661032854    3    3   10   10
 -0.01667164134378788    3    3   11    1
 -7.149016148362713e-14    3    3   11    2
 -0.0868399820506212    3    3   11    3
 -1.436087653306436e-15    3    3   11    4
 1.043101961814427e-15    3    3   11    6
 -0.1153179572427928    3    3   11    7
 6.946137995958946e-15    3    3   11   10
 0.4504346678337633    3    3   11   11
 0.1399340581674947    3    3   12    5
 -0.05436495306569186    3    3   12    6
 -2.575128319621333e-15    3    3   12    8
 0.5028641181567121    3    3   12   12
 0.05436495306569174    3    3   13    5
 0.1399340581674947    3    3   13    6
 1.37816685007118e-15    3    3   13    7
 -3.149303474028792e-15    3    3   13    9
 0.5028641181567118    3    3   13   13
 -0.02100608068331373    3    3   14    1
 -8.820141945905183e-14    3    3   14    2
 0.07197392049158101    3    3   14    3
 1.082863704779828e-14    3    3   14    4
 -0.07002898764619976    3    3   14    7
 -0.05359042614133524    3    3   14   11
 0.4655719453806976    3    3   14   14
 -1.487062517023361e-15    3    3   15    5
 -1.618687580124739e-15    3    3   15    6
 -0.02248560876522741    3    3   15    8
 -0.174995078871276    3    3   15    9
 0.5168746782623448    3    3   15   15
 -1.511301112653136e-15    3    3   16    5
 -0.174995078871276    3    3   16    8
 0.02248560876522728    3    3   16    9
 0.5168746782623442    3    3   16   16
 -1.529390857156212e-13    3    3   17    1
 0.03668192615921551    3    3   17    2
 0.04002124010852336    3    3   17    4
 4.30859456022381e-15    3    3   17    7
 -0.06173985732347908    3    3   17   10
 4.296417710730811e-15    3    3   17   11
 -6.331679270929292e-15    3    3   17   14
 0.5669581825419027    3    3   17   17
 6.761404315377706e-14    3    3   18    1
 -0.01588067129400054    3    3   18    2
 -2.643171987275795e-15    3    3   18    3
 0.07726727383777976    3    3   18    4
 9.597881466584574e-15    3    3   18    7
 0.1393854183963526    3    3   18   10
 -5.995964879533635e-15    3    3   18   11
 7.100525137115881e-15    3    3   18   14
 -0.164191413933731    3    3   18   17
 0.6640422186464066    3    3   18   18
 -2.244270959494062e-12    4    1    1    1
 0.1761613302362856    4    1    2    1
 7.004959734905461e-13    4    1    2    2
 2.112383687935486e-13    4    1    3    1
 -0.02549306290102369    4    1    3    2
 -9.561675537860618e-14    4    1    3    3
 0.02828714612727046    4    1    4    1
 -2.201673067157165e-15    4    1    4    2
 -0.003905386584084131    4    1    4    3
 -1.187722475906347e-14    4    1    4    4
 -3.312971247720718e-14    4    1    5    5
 -3.313537181555228e-14    4    1    6    6
 -1.294008666578962e-13    4    1    7    1
 0.0152058266554079    4    1    7    2
 -3.097622136008227e-14    4    1    7    3
 -0.004014100132261679    4    1    7    4
 -1.503637198917209e-14    4    1    7    7
 0.00119853751169905    4    1    8    5
 -0.0006561006782615076    4    1    8    6
 -1.997151997792824e-14    4    1    8    8
 0.0006561006782615097    4    1    9    5
 0.001198537511699051    4    1    9    6
 -1.997047119644791e-14    4    1    9    9
 0.01547933421649534    4    1   10    1
 -0.005049020901915284    4    1   10    3
 -1.861500372520968e-14    4    1   10    4
 0.0003143285787529537    4    1   10    7
 -1.008140876855944e-14    4    1   10   10
 6.539451014433741e-15    4    1   11    1
 -0.0007168227213191366    4    1   11    2
 2.939804375254624e-14    4    1   11    3
 -0.0001441888708694421    4    1   11    4
 2.325766831459998e-14    4    1   11    7
 0.003408069027696699    4    1   11   10
 -2.147778801300067e-14    4    1   11   11
 -2.599759993146604e-14    4    1   12    5
 1.008936534606653e-14    4    1   12    6
 0.00416346869818875    4    1   12    8
 0.000545597547052837    4    1   12    9
 -3.451496665545316e-14    4    1   12   12
 -1.011800140082183e-14    4    1   13    5
 -2.60172160682398e-14    4    1   13    6
 -0.0005455975470528368    4    1   13    8
 0.00416346869818875    4    1   13    9
 -3.455160745111713e-14    4    1   13   13
 2.127354143870901e-13    4    1   14    1
 -0.02509758662820948    4    1   14    2
 -2.241301901452102e-14    4    1   14    3
 -0.001837224021749553    4    1   14    4
 -0.001102039835653696    4    1   14   10
 7.369373518670793e-15    4    1   14   11
 -1.439425352404329e-14    4    1   14   14
 -0.00289120047236634    4    1   15    5
 -0.003976614513412384    4    1   15    6
 3.690690086109034e-15    4    1   15    8
 2.875701386082955e-14    4    1   15    9
 -0.001240015655699331    4    1   15   12
 -0.004697353258619437    4    1   15   13
 -3.953958263804999e-14    4    1   15   15
 -0.003976614513412381    4    1   16    5
 0.002891200472366337    4    1   16    6
 2.878557247023166e-14    4    1   16    8
 -3.701643251882131e-15    4    1   16    9
 -0.004697353258619436    4    1   16   12
 0.001240015655699332    4    1   16   13
 -3.959543586847028e-14    4    1   16   16
 0.01189925378275735    4    1   17    1
 -3.066162835695293e-15    4    1   17    2
 0.005787980823723754    4    1   17    3
 6.388400954856573e-15    4    1   17    4
 0.002340666546937193    4    1   17    7
 1.159933563206025e-14    4    1   17   10
 -0.004052697543804688    4    1   17   11
 0.002219560319733886    4    1   17   14
 -3.550458538281731e-14    4    1   17   17
 0.0194199791419308    4    1   18    1
 3.427643846906884e-15    4    1   18    2
 -0.01286832354377796    4    1   18    3
 -2.550885574638472e-14    4    1   18    4
 -0.003545793859945835    4    1   18    7
 -3.097397596974033e-14    4    1   18   10
 0.005410147903181038    4    1   18   11
 -0.003150977163374601    4    1   18   14
 4.492413385737137e-14    4    1   18   17
 -8.31348878627125e-14    4    1   18   18
 0.1844373045033513    4    2    1    1
 7.354137374202862e-13    4    2    2    1
 0.1845910627513112    4    2    2    2
 -0.02508783815305323    4    2    3    1
 -2.115832544583906e-13    4    2    3    2
 0.02264105237486318    4    2    3    3
 -2.206268479698768e-15    4    2    4    1
 0.02858810463975456    4    2    4    2
 -1.700658731661358e-14    4    2    4    3
 0.003128657799178204    4    2    4    4
 0.007941228650479675    4    2    5    5
 0.007941228650479675    4    2    6    6
 0.01580774590508473    4    2    7    1
 1.29927087101976e-13    4    2    7    2
 0.007201742269566797    4    2    7    3
 -1.568671652624345e-14    4    2    7    4
 0.003667385726851115    4    2    7    7
 5.443897428738351e-15    4    2    8    5
 -2.977846722118862e-15    4    2    8    6
 0.004846304886331998    4    2    8    8
 2.982310964246773e-15    4    2    9    5
 5.441719649184796e-15    4    2    9    6
 0.004846304886332001    4    2    9    9
 0.0154832206557546    4    2   10    2
 -2.154662161275797e-14    4    2   10    3
 0.004478994975039046    4    2   10    4
 1.138073565778089e-15    4    2   10    7
 0.002591800007676141    4    2   10   10
 -0.001092920511446812    4    2   11    1
 -8.657304386496885e-15    4    2   11    2
 -0.006857309345393567    4    2   11    3
 -0.005537396204155833    4    2   11    7
 1.390081987711302e-14    4    2   11   10
 0.00502871325464112    4    2   11   11
 0.006212068599039589    4    2   12    5
 -0.002413414019790748    4    2   12    6
 1.741397637577591e-14    4    2   12    8
 2.272617076622496e-15    4    2   12    9
 0.008248153301075258    4    2   12   12
 0.002413414019790745    4    2   13    5
 0.006212068599039589    4    2   13    6
 -2.288914046217336e-15    4    2   13    8
 1.739640926665284e-14    4    2   13    9
 0.00824815330107526    4    2   13   13
 -0.02534546019791659    4    2   14    1
 -2.090236038633207e-13    4    2   14    2
 0.005238326759675494    4    2   14    3
 -7.910426564800384e-15    4    2   14    4
 -3.29208409064383e-05    4    2   14    7
 -4.701365015780127e-15    4    2   14   10
 -0.001612837115640873    4    2   14   11
 0.003565553447412608    4    2   14   14
 -1.226060501889429e-14    4    2   15    5
 -1.684762636510908e-14    4    2   15    6
 -0.0008908763112270204    4    2   15    8
 -0.006933277723341529    4    2   15    9
 -5.288486670677351e-15    4    2   15   12
 -2.00264307337129e-14    4    2   15   13
 0.009554210074993534    4    2   15   15
 -1.68417000994444e-14    4    2   16    5
 1.223708972622937e-14    4    2   16    6
 -0.00693327772334152    4    2   16    8
 0.0008908763112270162    4    2   16    9
 -2.002889633092191e-14    4    2   16   12
 5.287793615432021e-15    4    2   16   13
 0.009554210074993531    4    2   16   16
 -2.977341095350461e-15    4    2   17    1
 0.01253563669059744    4    2   17    2
 2.391674518592552e-14    4    2   17    3
 -0.001390829437536949    4    2   17    4
 1.027666680503514e-14    4    2   17    7
 -0.002865147815781661    4    2   17   10
 -1.693861751671401e-14    4    2   17   11
 7.982372466274057e-15    4    2   17   14
 0.008660301903662647    4    2   17   17
 3.352414591710875e-15    4    2   18    1
 0.01903990021526213    4    2   18    2
 -5.365401652186808e-14    4    2   18    3
 0.006136556888752613    4    2   18    4
 -1.444585470504773e-14    4    2   18    7
 0.007351196382474968    4    2   18   10
 2.214315395072395e-14    4    2   18   11
 -1.276600458246295e-14    4    2   18   14
 -0.01060090577149622    4    2   18   17
 0.01997560908959588    4    2   18   18
 1.3035229270205e-12    4    3    1    1
 -0.1566548202369978    4    3    2    1
 -1.315921307311821e-12    4    3    2    2
 -3.656131904129569e-14    4    3    3    1
 0.008634088620205588    4    3    3    2
 -7.253665898108604e-15    4    3    3    3
 -0.00390538658408415    4    3    4    1
 -1.699433567847334e-14    4    3    4    2
 0.04697337295354    4    3    4    3
 5.829352931638543e-15    4    3    4    4
 -2.571297536631295e-15    4    3    5    5
 -2.377037057299268e-15    4    3    6    6
 -6.394571534016029e-15    4    3    7    1
 0.001321000777021555    4    3    7    2
 -1.021842292587572e-15    4    3    7    3
 -0.08259450633096133    4    3    7    4
 -7.847766899363587e-15    4    3    7    7